TITLE=sgn_upw_1.00_ 20_10.00"
 VARIABLES = "x-nodes", "x-centres", "Analytical", "Numerical", "Error"
 ZONE
T=   "sgn_upw_1.00_ 20"
I= 21, DATAPACKING=BLOCK, VARLOCATION=([2,3,4]=CELLCENTERED)
-0.421053E+02
-0.378947E+02
-0.336842E+02
-0.294737E+02
-0.252632E+02
-0.210526E+02
-0.168421E+02
-0.126316E+02
-0.842105E+01
-0.421053E+01
 0.000000E+00
 0.421053E+01
 0.842105E+01
 0.126316E+02
 0.168421E+02
 0.210526E+02
 0.252632E+02
 0.294737E+02
 0.336842E+02
 0.378947E+02
 0.421053E+02
-0.400000E+02
-0.357895E+02
-0.315789E+02
-0.273684E+02
-0.231579E+02
-0.189474E+02
-0.147368E+02
-0.105263E+02
-0.631579E+01
-0.210526E+01
 0.210526E+01
 0.631579E+01
 0.105263E+02
 0.147368E+02
 0.189474E+02
 0.231579E+02
 0.273684E+02
 0.315789E+02
 0.357895E+02
 0.400000E+02  0.000000E+00
 0.000000E+00
 0.000000E+00
 0.000000E+00
 0.000000E+00
 0.000000E+00
 0.000000E+00
 0.000000E+00
 0.000000E+00
 0.000000E+00
 0.000000E+00
 0.000000E+00
 0.000000E+00
 0.100000E+01
 0.100000E+01
 0.100000E+01
 0.100000E+01
 0.100000E+01
 0.100000E+01
 0.100000E+01  0.000000E+00
 0.000000E+00
 0.000000E+00
 0.000000E+00
 0.000000E+00
 0.000000E+00
 0.000000E+00
 0.000000E+00
 0.000000E+00
 0.000000E+00
 0.000000E+00
 0.625000E+00
 0.000000E+00
 0.100000E+01
 0.100000E+01
 0.100000E+01
 0.100000E+01
 0.100000E+01
 0.100000E+01
 0.100000E+01  0.000000E+00
 0.000000E+00
 0.000000E+00
 0.000000E+00
 0.000000E+00
 0.000000E+00
 0.000000E+00
 0.000000E+00
 0.000000E+00
 0.000000E+00
 0.000000E+00
-0.625000E+00
 0.000000E+00
 0.000000E+00
 0.000000E+00
 0.000000E+00
 0.000000E+00
 0.000000E+00
 0.000000E+00
 0.000000E+00
